! Touchstone file exported from HFSS 2020.2.0
!        File:           C:/Users/user/Desktop/Manuf_Based.aedt
!        Generated:      8:33:44 PM  Nov 22, 2020
!        Design:         Enguzeldowm
!        Project:        Manuf_Based
!        Setup:          Setup1
!        Solution:       Sweep
!
! Variables:
!        Bridge_Height = 0
!        L_Bridge = 400um
!        L_Gold_Recess = 300um
!        L_Model = 780um
!        L_Recess = 180um
!        L_Upper_Pad = 60um
!        L_tl_Unmatched = 600um
!        Lambda = 11530479.1538nm
!        W_Anchor = 60um
!        W_Bridge = 60um
!        W_Gold_Recess = 60um
!        W_Lower_Pad = 85um
!        W_Model = 2200um
!        W_Recess = 400um
!        W_Upper_Pad = 85um
!        W_gap = 100um
!        W_real_pad = 60um
!        W_signal = 85um
!        h_Recess = 1.5um
!        t_dielectric = 0.5um
!        t_gold = 1um
!        t_substrate = 500um
!
# GHZ S MA R 50.000000
! Terminal data exported
! Port[1] = 1
! Port[2] = 2
1                              0.0861274879034727 -161.482039319156 0.934841879572169 173.850777066563 0.934841879572168 173.850777066563 0.0471064586330291 -143.145446477567 
! Gamma         3.15528157655137 39.025270466294  3.15539610832078 38.8266410816874 
! Port Impedance         50               0                50               0                
1.09774436090226               0.084277574899218 -157.053110717001 0.939695891846997 -6.8880879739329 0.939695891846997 -6.88808797393297 0.0479618240096574 -134.701969327476 
! Gamma         3.25335760308159 42.7248243738967 3.25927440605069 42.5154219216021 
! Port Impedance         50               0                50               0                
1.19548872180451               0.0844409817109075 -152.38346409575 0.943541302613762 -7.67481846970978 0.943541302613762 -7.67481846970979 0.0511258045041128 -127.328505009751 
! Gamma         3.34378636905361 46.4188205682693 3.35791093732573 46.1965991544013 
! Port Impedance         50               0                50               0                
1.29323308270677               0.0862990525998565 -147.931334274373 0.946527731938049 -8.48739616593567 0.946527731938048 -8.48739616593569 0.0558845962247101 -121.635741550332 
! Gamma         3.42715357161444 50.1084865009871 3.45105714161308 49.8711592314247 
! Port Impedance         50               0                50               0                
1.39097744360902               0.0894905179554798 -143.960223102734 0.948809664922454 -9.31281889045935 0.948809664922454 -9.31281889045936 0.0616361095363781 -117.537746684129 
! Gamma         3.50405811143332 53.7947872150741 3.53860103007965 53.5400688367776 
! Port Impedance         50               0                50               0                
1.48872180451128               0.0936830711356125 -140.571568296823 0.950521621022177 -10.143577562321 0.950521621022179 -10.143577562321 0.0679686558089374 -114.704290484667 
! Gamma         3.57507543532139 57.4784790875498 3.62055277976125 57.2042374776061 
! Port Impedance         50               0                50               0                
1.58646616541353               0.098604039682198 -137.763475906548 0.951772775478228 -10.9754187611662 0.951772775478226 -10.9754187611662 0.0746270788110427 -112.804563413632 
! Gamma         3.64073963626395 61.1601558478761 3.69702254661015 60.8644952726291 
! Port Impedance         50               0                50               0                
1.68421052631579               0.104044180181239 -135.482245195986 0.952649113293462 -11.806000984943 0.952649113293462 -11.806000984943 0.081459762273612 -111.578367981161 
! Gamma         3.70153690452887 64.8402856190539 3.76819676386743 64.5215817168666 
! Port Impedance         50               0                50               0                
1.78195488721805               0.109848956740469 -133.655864934106 0.953217681876972 -12.6340984308743 0.953217681876972 -12.6340984308743 0.0883780664353052 -110.837341554634 
! Gamma         3.75790514422509 68.519240387343  3.83431574066136 68.1761437431709 
! Port Impedance         50               0                50               0                
1.8796992481203                0.115906661835929 -132.211877813385 0.95353061130201 -13.4591342576761 0.953530611302011 -13.459134257676 0.0953305908060772 -110.448866210453 
! Gamma         3.81023691113039 72.1973178373046 3.89565458945731 71.8287384317772 
! Port Impedance         50               0                50               0                
1.97744360902256               0.122137404576006 -131.085150828084 0.95362857472688 -14.2809071809838 0.953628574726879 -14.2809071809838 0.102287823911041 -110.319908716534 
! Gamma         3.85888363477136 75.8747578759684 3.95250762427063 75.4798395937876 
! Port Impedance         50               0                50               0                
2                              0.123593466007596 -130.864133080692 0.953624181598168 165.529917426196 0.953624181598167 165.529917426196 0.103892077002284 -110.319628594547 
! Gamma         3.86962039618386 76.7233287172164 3.96502233587055 76.3222327899316 
! Port Impedance         50               0                50               0                
2.07518796992481               0.128484330141966 -130.220203555539 0.953543602251582 -15.0994334954285 0.953543602251581 -15.0994334954285 0.109233203670785 -110.384684499098 
! Gamma         3.90416013648187 79.5517552364705 4.00517635567579 79.1298456213625 
! Port Impedance         50               0                50               0                
2.17293233082707               0.134907109954799 -129.571126923657 0.9533010466949  -15.9148509666258 0.9533010466949  -15.9148509666258 0.116157863967591 -110.596156069337 
! Gamma         3.94634907563656 83.2284687236845 4.05396047652489 82.7790885335416 
! Port Impedance         50               0                50               0                
2.27067669172932               0.141377234490604 -129.100459248604 0.952921139242232 -16.7273635736603 0.952921139242233 -16.7273635736603 0.12305755005423 -110.920223366424 
! Gamma         3.98570483468442 86.9050284848232 4.09915151651388 86.4278425000783 
! Port Impedance         50               0                50               0                
2.36842105263158               0.147874659963843 -128.777803341648 0.952420192569303 -17.5372093236481 0.952420192569303 -17.5372093236481 0.12993078933644 -111.33179250567 
! Gamma         4.02245703935567 90.5815413024301 4.14102851047645 90.0763320071165 
! Port Impedance         50               0                50               0                
2.46616541353383               0.154385437066605 -128.578551408361 0.951811415319717 -18.3446394708315 0.951811415319716 -18.3446394708316 0.136777765305793 -111.812159549676 
! Gamma         4.05681350103535 94.2580948582469 4.17985531102607 93.7247394466444 
! Port Impedance         50               0                50               0                
2.56390977443609               0.160900022917579 -128.48275966844 0.951105566290565 -19.1499070327301 0.951105566290566 -19.14990703273  0.143599640442881 -112.347201802495 
! Gamma         4.08896282605292 97.934761036281  4.21587907685496 97.3732114753544 
! Port Impedance         50               0                50               0                
2.66165413533835               0.167412070449982 -128.474215257237 0.950311468614019 -19.9532601678022 0.950311468614017 -19.9532601678023 0.150398138061135 -112.926119064875 
! Gamma         4.1190765402445  101.611598693309 4.24932967150996 101.021865175841 
! Port Impedance         50               0                50               0                
2.7593984962406                0.173917564327669 -128.539695055752 0.949436371294364 -20.7549384675851 0.949436371294361 -20.7549384675851 0.15717528940129 -113.540565947187 
! Gamma         4.14731099265289 105.288655658371 4.28041970046675 104.670792740185 
! Port Impedance         50               0                50               0                
2.85714285714286               0.180414175655975 -128.668371819211 0.948486242484724 -21.5551700995354 0.948486242484725 -21.5551700995354 0.16393325863106 -114.184029357986 
! Gamma         4.17380895486281 108.965970445859 4.30934493395184 108.320065741814 
! Port Impedance         50               0                50               0                
2.95488721804511               0.186900805140299 -128.851338110947 0.947466009140935 -22.3541714463321 0.947466009140935 -22.3541714463321 0.170674250818798 -114.851376452312 
! Gamma         4.198700980442   112.643573938725 4.33628507492728 111.969738994554 
! Port Impedance         50               0                50               0                
3                              0.189891182325007 -128.952007329996 0.946972643915627 157.277416625868 0.946972643915626 157.277416625868 0.173780359499361 -115.166275923744 
! Gamma         4.20968142883797 114.341033665234 4.3480955319489  113.65435030756  
! Port Impedance         50               0                50               0                
3.05263157894737               0.193377238062491 -129.08123227965 0.94637974151739 -23.1521467442619 0.94637974151739 -23.1521467442618 0.177400451448507 -115.538527598306 
! Gamma         4.22210663385897 116.321490301227 4.3614046619755  115.619853273819 
! Port Impedance         50               0                50               0                
3.15037593984962               0.199843886466061 -129.351948961408 0.945230778045939 -23.9492875752736 0.945230778045938 -23.9492875752735 0.184113977517849 -116.242222534809 
! Gamma         4.24413551970837 119.999738300846 4.38485405967356 119.270438119682 
! Port Impedance         50               0                50               0                
3.24812030075188               0.206301603621852 -129.658396097105 0.94402186499742 -24.7457738736856 0.944021864997419 -24.7457738736856 0.190816866692478 -116.959832329051 
! Gamma         4.26488824751925 123.678331807648 4.40677052562558 122.921513642253 
! Port Impedance         50               0                50               0                
3.34586466165414               0.212751534986895 -129.996310565813 0.942755243317423 -25.5417738631416 0.942755243317421 -25.5417738631415 0.19751105517645 -117.689226727961 
! Gamma         4.28445724301086 127.357280916345 4.42727921249737 126.573092632908 
! Port Impedance         50               0                50               0                
3.44360902255639               0.219195017530444 -130.362108677298 0.941432721895048 -26.3374448435799 0.941432721895046 -26.3374448435799 0.20419837562972 -118.428671993896 
! Gamma         4.302927458911   131.036592278677 4.44649420307697 130.225181786778 
! Port Impedance         50               0                50               0                
3.54135338345865               0.225633497073612 -130.752763102965 0.940055750893425 -27.1329337185361 0.940055750893425 -27.132933718536 0.210880552390208 -119.176748444617 
! Gamma         4.3203770702306  134.716269797771 4.46451944310301 133.877783009972 
! Port Impedance         50               0                50               0                
3.6390977443609                0.232068467420309 -131.165707424787 0.938625468272804 -27.9283774243022 0.938625468272805 -27.9283774243023 0.217559200096766 -119.932290667942 
! Gamma         4.3368780605661  138.396314965208 4.48144964797969 137.530894230031 
! Port Impedance         50               0                50               0                
3.73684210526316               0.238501430407433 -131.598751847232 0.937142764594454 -28.7239040611422 0.937142764594452 -28.7239040611423 0.224235832623449 -120.69433344827 
! Gamma         4.35249673033663 142.076727375654 4.49737115019441 141.18451050933  
! Port Impedance         50               0                50               0                
3.83458646616541               0.244933856509583 -132.050029647591 0.935608280273058 -29.5196323346244 0.935608280273058 -29.5196323346244 0.230911847129768 -121.462084774526 
! Gamma         4.36729424616958 145.757504976171 4.51236264850328 144.838624453298 
! Port Impedance         50               0                50               0                
3.93233082706767               0.251367166739984 -132.517933923206 0.934022478813545 -30.3156731673108 0.934022478813545 -30.3156731673108 0.237588545015416 -122.234883746719 
! Gamma         4.38132699523871 149.438644397258 4.52649593116191 148.493226940821 
! Port Impedance         50               0                50               0                
4                              0.25582222908273 -132.85087148857 0.932894715277683 149.132984052938 0.932894715277682 149.132984052938 0.24221190839904 -122.772563065179 
! Gamma         4.39062150778029 151.987335174777 4.53581244665624 151.023617049742 
! Port Impedance         50               0                50               0                
4.03007518796993               0.257802714382405 -133.001079729628 0.932385653912023 -31.1121296868035 0.932385653912021 -31.1121296868035 0.244267125034448 -123.012181900647 
! Gamma         4.39464704075013 153.120141172185 4.53983651561982 152.148307451643 
! Port Impedance         50               0                50               0                
4.12781954887218               0.264241770563547 -133.498269324508 0.930697949991336 -31.9090975948416 0.930697949991337 -31.9090975948416 0.250948686372675 -123.793524005822 
! Gamma         4.40730247929761 156.801989928718 4.55244423827683 155.803854455906 
! Port Impedance         50               0                50               0                
4.22556390977444               0.270685517730581 -134.008459500953 0.928959397019377 -32.7066658134569 0.928959397019377 -32.7066658134569 0.257634233021739 -124.57852835315 
! Gamma         4.41933776398622 160.484184635808 4.5643737906569  159.459855759458 
! Port Impedance         50               0                50               0                
4.32330827067669               0.277135046565854 -134.530741252298 0.927169909932479 -33.504916777713 0.927169909932481 -33.504916777713 0.264324676150744 -125.366878164279 
! Gamma         4.43079399135468 164.166718690957 4.57567519126859 163.116298693572 
! Port Impedance         50               0                50               0                
4.42105263157895               0.283591348388965 -135.064316574866 0.925329318696644 -34.3039267148834 0.925329318696642 -34.3039267148834 0.271020834479652 -126.158307181554 
! Gamma         4.44170922100145 167.849585105934 4.58639423494389 166.773170380978 
! Port Impedance         50               0                50               0                
4.5187969924812                0.290055317983781 -135.608483933707 0.923437369606038 -35.1037660713045 0.923437369606037 -35.1037660713045 0.27772343933531 -126.952593678012 
! Gamma         4.45211866041919 171.532776533139 4.59657288038565 170.43045776317  
! Port Impedance         50               0                50               0                
4.61654135338346               0.296527750883838 -136.162622626574 0.921493744731045 -35.9044997399118 0.921493744731045 -35.9044997399117 0.284433134673789 -127.749551315513 
! Gamma         4.46205495687351 175.216285462945 4.60624961005263 174.088147853736 
! Port Impedance         50               0                50               0                
4.71428571428571               0.30300934645173 -136.726182144136 0.919498066054487 -36.7061873992591 0.919498066054486 -36.7061873992591 0.291150480822207 -128.549024357926 
! Gamma         4.47154836863105 178.900104225359 4.61545974445574 177.746227763023 
! Port Impedance         50               0                50               0                
4.81203007518797               0.30950070617917 -137.298671203119 0.917449909804501 -37.5088836524662 0.9174499098045  -37.5088836524663 0.297875954762479 -129.350881471205 
! Gamma         4.48062696204009 182.584225069857 4.62423574285703 181.404684773698 
! Port Impedance         50               0                50               0                
4.90977443609022               0.316002337043665 -137.879650640031 0.915348807809894 -38.3126382364277 0.915348807809893 -38.3126382364277 0.304609951335885 -130.155012853677 
! Gamma         4.4893168053586  186.268640261819 4.63260745455943 185.06350648412  
! Port Impedance         50               0                50               0                
5                              0.32201332057126 -138.423132493811 0.913361904080509 140.944455836071 0.91336190408051 140.944455836071 0.310833790483729 -130.899225898711 
! Gamma         4.49701412075102 189.669893456231 4.64000015749563 188.441193536566 
! Port Impedance         50               0                50               0                
5.00751879699248               0.322514655765749 -138.468725038579 0.913194259787413 -39.1174964807793 0.913194259787414 -39.1174964807793 0.311352790411243 -130.96132563112 
! Gamma         4.49764210806558 189.953342050105 4.64060235783536 188.722680712057 
! Port Impedance         50               0                50               0                
5.10526315789474               0.329037986659901 -139.065537697502 0.910985736114888 -39.9234990864793 0.910985736114889 -39.9234990864792 0.318104710042788 -131.769741548624 
! Gamma         4.50562537155375 193.638322816819 4.64824577358387 192.382195663976 
! Port Impedance         50               0                50               0                
5.20300751879699               0.335572568821657 -139.669764144032 0.90872268912982 -40.7306827648499 0.908722689129821 -40.73068276485  0.324865878059776 -132.580193357239 
! Gamma         4.51328751992543 197.323574964073 4.65556105275273 196.042039832903 
! Port Impedance         50               0                50               0                
5.30075187969925               0.342118552247281 -140.281109978679 0.906404547615735 -41.5390797745736 0.906404547615735 -41.5390797745736 0.331636381693796 -133.392624786324 
! Gamma         4.52064803236472 201.009091086959 4.66256975777043 199.702202146578 
! Port Impedance         50               0                50               0                
5.3984962406015                0.348676007380682 -140.899305026643 0.904030731087043 -42.3487186804091 0.904030731087043 -42.3487186804091 0.338416240534813 -134.206986842959 
! Gamma         4.52772506057374 204.694863879261 4.66929181196765 203.362671876545 
! Port Impedance         50               0                50               0                
5.49624060150376               0.35524492183458 -141.524100627533 0.901600652747285 -43.1596240773007 0.901600652747285 -43.1596240773007 0.345205400457509 -135.023236586712 
! Gamma         4.534535505252   208.380886238045 4.67574564636838 207.023438689277 
! Port Impedance         50               0                50               0                
5.59398496240602               0.361825205558792 -142.155267415991 0.899113719320514 -43.9718168661072 0.899113719320514 -43.9718168661072 0.352003738852997 -135.841336590941 
! Gamma         4.54109513270583 212.067151209206 4.68194831506217 210.684492624587 
! Port Impedance         50               0                50               0                
5.69172932330827               0.368416693501961 -142.792592317627 0.896569338160323 -44.7853143853789 0.896569338160324 -44.7853143853789 0.358811065636406 -136.661253191936 
! Gamma         4.54741865737347 215.753651976096 4.68791563864588 214.34582409939  
! Port Impedance         50               0                50               0                
5.78947368421053               0.375019144485987 -143.435876855941 0.893966919032604 -45.6001302785563 0.893966919032608 -45.6001302785563 0.365627120856102 -137.482955864336 
! Gamma         4.55351981740387 219.440381978758 4.69366227707465 218.007423894043 
! Port Impedance         50               0                50               0                
5.88721804511278               0.381632247560903 -144.084935097107 0.891305877704679 -46.4162749004119 0.891305877704678 -46.4162749004119 0.372451582250506 -138.306416325748 
! Gamma         4.55941144468446 223.127334823979 4.69920184053591 221.669283186023 
! Port Impedance         50               0                50               0                
5.98496240601504               0.388255620522755 -144.739592014453 0.888585640377408 -47.2337551126161 0.888585640377408 -47.2337551126161 0.379284060684138 -139.131607605645 
! Gamma         4.5651055294275  226.814504286752 4.70454698187716 225.331393478437 
! Port Impedance         50               0                50               0                
6                              0.389275484742329 -144.840794677885 0.888161852535889 132.640359875246 0.888161852535889 132.640359875246 0.380335895023998 -139.258712030624 
! Gamma         4.56596474001369 227.381779977514 4.70535281596073 225.894816831061 
! Port Impedance         50               0                50               0                
6.08270676691729               0.394888814869822 -145.399682208819 0.885805644895572 -48.0525745867851 0.885805644895572 -48.0525745867851 0.386124106151843 -139.958503777477 
! Gamma         4.57061330976226 230.50188438723  4.70970946335258 228.993746678358 
! Port Impedance         50               0                50               0                
6.18045112781955               0.40153131500978 -146.065048876481 0.882965343141757 -48.8727336610915 0.882965343141758 -48.8727336610914 0.392971205652148 -140.787079472184 
! Gamma         4.57594528114361 234.189469304134 4.71470023092099 232.656334961192 
! Port Impedance         50               0                50               0                
6.2781954887218                0.408182543088152 -146.735542278852 0.880064206146348 -49.6942296149508 0.88006420614635 -49.6942296149509 0.399824787413637 -141.617309013973 
! Gamma         4.58111129694356 237.877253415963 4.71952948691628 236.319150872479 
! Port Impedance         50               0                50               0                
6.37593984962406               0.414841858417863 -147.411019337813 0.877101723293287 -50.5170565571545 0.877101723293288 -50.5170565571545 0.406684220313987 -142.449166644962 
! Gamma         4.58612057412332 241.565231297492 4.72420674232749 239.982187256021 
! Port Impedance         50               0                50               0                
6.47368421052632               0.421508559906219 -148.091342474091 0.874077407064937 -51.341205513679 0.874077407064938 -51.3412055136791 0.41354881496987 -143.282625802076 
! Gamma         4.59098176160374 245.25339773157  4.72874086134744 243.645437283012 
! Port Impedance         50               0                50               0                
6.57142857142857               0.4281818894551  -148.77637885411 0.870990795124339 -52.1666646034625 0.87099079512434 -52.1666646034624 0.420417827868245 -144.117658849535 
! Gamma         4.59570297281113 248.941747641145 4.73314013951165 247.308894396372 
! Port Impedance         50               0                50               0                
6.66917293233083               0.434861031632047 -149.466000054055 0.867841450835902 -52.9934189185407 0.867841450835902 -52.9934189185408 0.4272904598148  -144.954237156598 
! Gamma         4.60029183881338 252.630276149752 4.73741230895851 250.972552311147 
! Port Impedance         50               0                50               0                
6.76691729323308               0.441545117687517 -150.16008111436 0.864628967545577 -53.821450730744 0.864628967545578 -53.821450730744 0.434165859556079 -145.792330554467 
! Gamma         4.60475551005589 256.318978602994 4.74156461839809 254.636405055227 
! Port Impedance         50               0                50               0                
6.86466165413534               0.448233224854225 -150.858500383292 0.861352968568234 -54.6507393811666 0.861352968568236 -54.6507393811666 0.441043123752199 -146.631907491814 
! Gamma         4.60910071636831 260.007850446896 4.74560384262148 258.300446873566 
! Port Impedance         50               0                50               0                
6.96240601503759               0.454924380631334 -151.561138766901 0.858013110949198 -55.4812614779232 0.858013110949199 -55.4812614779233 0.447921300062342 -147.472934604649 
! Gamma         4.61333379552115 263.696887338792 4.74953633308445 261.964672264225 
! Port Impedance         50               0                50               0                
7                              0.457498499059637 -151.832483037807 0.856711479474733 124.198983976247 0.856711479474734 124.198983976247 0.450566784913219 -147.796785438108 
! Gamma         4.61493331541787 265.115790747822 4.7510216839     263.374037505563 
! Port Impedance         50               0                50               0                
7.06015037593985               0.461617563391395 -152.267879650787 0.854609085194628 -56.3129908441834 0.854609085194629 -56.3129908441833 0.45479938764081 -148.315376947036 
! Gamma         4.61746069039537 267.386085099743 4.75336804215499 265.629076017139 
! Port Impedance         50               0                50               0                
7.15789473684211               0.468311703666188 -152.978608258014 0.851140619326639 -57.1458985532256 0.851140619326639 -57.1458985532256 0.461676338564869 -149.159197547566 
! Gamma         4.62148702693187 271.075439681358 4.75710454769311 269.29365306096  
! Port Impedance         50               0                50               0                
7.25563909774436               0.475005688565083 -153.693211500319 0.847607478729905 -57.9799531245233 0.847607478729905 -57.9799531245233 0.468551062071409 -150.004357612565 
! Gamma         4.62541808023342 274.764947216326 4.76075109164262 272.958398609303 
! Port Impedance         50               0                50               0                
7.35338345864662               0.481698359872657 -154.411577633995 0.844009469254448 -58.8151203223505 0.844009469254448 -58.8151203223505 0.475422422064686 -150.850816287985 
! Gamma         4.62925883070279 278.454603977199 4.76431259025269 276.623308051586 
! Port Impedance         50               0                50               0                
7.45112781954887               0.488388519221325 -155.133596080553 0.840346437507646 -59.6513634140845 0.840346437507644 -59.6513634140845 0.482289242774157 -151.698530747861 
! Gamma         4.63301397631965 282.144406372828 4.76779368055534 280.288377006961 
! Port Impedance         50               0                50               0                
7.54887218045113               0.495074929129186 -155.859157149816 0.836618272909894 -60.4886431472873 0.836618272909893 -60.4886431472873 0.489150309112506 -152.547456124243 
! Gamma         4.63668796041099 285.834350952155 4.77119870572552 283.953601256063 
! Port Impedance         50               0                50               0                
7.64661654135338               0.501756314735528 -156.588151937371 0.832824908797091 -61.3269177699873 0.832824908797091 -61.3269177699873 0.496004368176697 -153.39754548882 
! Gamma         4.64028495565908 289.524434415324 4.77453176382148 287.618976766736 
! Port Impedance         50               0                50               0                
7.74436090225564               0.508431365856551 -157.320472043615 0.828966323965832 -62.1661431103199 0.828966323965832 -62.1661431103199 0.502850132222661 -154.248749866172 
! Gamma         4.64380892990615 293.214653574633 4.7777967100726  291.28449969366  
! Port Impedance         50               0                50               0                
7.84210526315789               0.515098738954437 -158.056009493924 0.825042544050338 -63.0062726010126 0.825042544050338 -63.0062726010126 0.509686279730959 -155.101018174733 
! Gamma         4.64726360974372 296.905005353672 4.78099718120068 294.950166351125 
! Port Impedance         50               0                50               0                
7.93984962406015               0.521757060246623 -158.794656617872 0.821053642042612 -63.847257379802 0.821053642042613 -63.8472573798021 0.516511458344472 -155.954297331418 
! Gamma         4.65065253252684 300.595486831365 4.7841366027391  298.615973200298 
! Port Impedance         50               0                50               0                
8                              0.525849382823928 -159.25070772688 0.818566615563313 115.634810480422 0.818566615563312 115.634810480422 0.520705518869416 -156.479870819109 
! Gamma         4.65270680288808 302.866615576246 4.78603962092451 300.871922540451 
! Port Impedance         50               0                50               0                
8.03759398496241               0.528404926702762 -159.536305913777 0.816999739752711 -64.6890462937716 0.816999739752711 -64.6890462937716 0.523324286614616 -156.808532223278 
! Gamma         4.65397905187488 304.286095166911 4.7872182079046  302.281916867716 
! Port Impedance         50               0                50               0                
8.13533834586466               0.535040909167605 -160.28084994733 0.81288100887291 -65.5315859867859 0.812881008872909 -65.531585986786 0.530123356040748 -157.663665706004 
! Gamma         4.65724631850807 307.976827656054 4.79024505112027 305.947994104028 
! Port Impedance         50               0                50               0                
8.23308270676692               0.541663554005681 -161.02818133306 0.808697671184578 -66.3748209402153 0.808697671184578 -66.3748209402153 0.536907233761089 -158.519638729308 
! Gamma         4.66045734257121 311.66768170049  4.79322001816383 309.614201850334 