! Touchstone file exported from HFSS 2019.3.0
!        File:           C:/Users/user/Documents/Ansoft/Manuf_Based.aedt
!        Generated:      12:29:45 AM  Nov 15, 2020
!        Design:         Enguzeldowm1
!        Project:        Manuf_Based
!        Setup:          Setup1
!        Solution:       Sweep
!
! Variables:
!        Bridge_Height = 1um
!        L_Bridge = 400um
!        L_Gold_Recess = 300um
!        L_Model = 780um
!        L_Recess = 180um
!        L_Upper_Pad = 60um
!        L_tl_Unmatched = 600um
!        Lambda = 11530479.1538nm
!        W_Anchor = 60um
!        W_Bridge = 60um
!        W_Gold_Recess = 60um
!        W_Lower_Pad = 85um
!        W_Model = 2000um
!        W_Recess = 400um
!        W_Upper_Pad = 85um
!        W_gap = 100um
!        W_real_pad = 60um
!        W_signal = 85um
!        h_Recess = 1.5um
!        t_dielectric = 0.5um
!        t_gold = 1um
!        t_substrate = 500um
!
# GHZ S MA R 50.000000
! Modal data exported
! Port[1] = 1:1
! Port[2] = 2:1
1                              0.587940522561611 157.403360089577 0.696850293760639 18.1175188270357 0.696850293760639 18.1175188270357 0.457324927870831 89.0002681013674 
! Gamma         !               3.16279451866229 39.1701698276456 4.55785604762712 45.1452640156786 
! Port Impedance50               0                50               0                

1.19597989949749               0.555667563635901 155.225137770046 0.747855979921375 15.6253424202906 0.747855979921374 15.6253424202906 0.466978368422861 77.2315657128826 
! Gamma         !               3.3274672391964  46.6309418117519 5.18994342963108 53.6374531192501 
! Port Impedance50               0                50               0                

1.39195979899497               0.530231209736136 153.845608972073 0.783786920968956 13.0486683021877 0.783786920968956 13.0486683021877 0.47379618903559 68.0510282227759 
! Gamma         !               3.47180954666952 54.0821651348055 5.84990915595626 62.0384006951062 
! Port Impedance50               0                50               0                

1.58793969849246               0.511079824934985 152.921483101374 0.8089721859779  10.6347269452857 0.808972185977899 10.6347269452856 0.47886564603595 60.8040335761958 
! Gamma         !               3.60094167801559 61.5261439246051 6.52395851493974 70.35116027835   
! Port Impedance50               0                50               0                

1.78391959798995               0.497105775862972 152.218999589966 0.826735791382206 8.44588876961049 0.826735791382207 8.44588876961044 0.48285410480537 54.995622592266  
! Gamma         !               3.71793216101687 68.9640705876431 7.20012464252615 78.5814310479219 
! Port Impedance50               0                50               0                

1.97989949748744               0.487181601311063 151.591928484851 0.839402235191249 6.47796790758433 0.839402235191251 6.47796790758429 0.486155740745377 50.2642896882094 
! Gamma         !               3.82464757111335 76.3968007074226 7.86876540866895 86.7364473713044 
! Port Impedance50               0                50               0                

2.17587939698492               0.480346968981869 150.955199952133 0.848549407204816 4.70571561677918 0.848549407204817 4.70571561677927 0.488994374626829 46.3490781166353 
! Gamma         !               3.92230538317908 83.825108084858  8.52254665300845 94.8241127672509 
! Port Impedance50               0                50               0                

2.37185929648241               0.475842185688781 150.263349589291 0.855243681612368 3.09984689085727 0.855243681612368 3.09984689085713 0.491491938497421 43.0615504216849 
! Gamma         !               4.01178926524448 91.2497389399565 9.15619068172463 102.852391771188 
! Port Impedance50               0                50               0                

2.5678391959799                0.47308656744111 149.495261828126 0.860210028915645 1.63302472958207 0.860210028915644 1.63302472958201 0.493712334175422 40.2648488109685 
! Gamma         !               4.09381619345846 98.6714018308499 9.76614134680022 110.828922461884 
! Port Impedance50               0                50               0                

2.76381909547739               0.47164302868496 148.644169684126 0.863946154357975 0.281578553404062 0.863946154357976 0.281578553404047 0.495688852758289 37.8587017867037 
! Gamma         !               4.16901760823999 106.09074699648  10.3502250555189 118.760789796637 
! Port Impedance50               0                50               0                

2.95979899497487               0.47118449600119 147.711384870268 0.866797133839369 -0.974356009005843 0.86679713383937 -0.974356009005909 0.497440630434954 35.7688658535654 
! Gamma         !               4.237974819365   113.508351670386 10.9073427120624 126.654411694663 
! Port Impedance50               0                50               0                

3.15577889447236               0.47146641241393 146.702496640061 0.869004171941662 -2.15122973615295 0.869004171941662 -2.15122973615289 0.498982129539294 33.9396821006321 
! Gamma         !               4.30123256184011 120.924712772024 11.4372064897914 134.515501512607 
! Port Impedance50               0                50               0                

3.35175879396985               0.472305697480839 145.625109381832 0.870736676447546 -3.26258834688114 0.870736676447547 -3.2625883468811 0.500328014860372 32.3288413690485 
! Gamma         !               4.35930211486221 128.340247722525 11.940122824526  142.349079102926 
! Port Impedance50               0                50               0                

3.54773869346734               0.473564972986203 144.487536798488 0.872113847021828 -4.31956202899134 0.872113847021828 -4.31956202899134 0.501495346545989 30.9036451341745 
! Gamma         !               4.41266090581575 135.755300857801 12.4168190859445 150.1595090946   
! Port Impedance50               0                50               0                

3.74371859296482               0.475141047488459 143.298053507613 0.873219350411943 -5.33127882447079 0.873219350411943 -5.33127882447074 0.50250401499078 29.6383679991575 
! Gamma         !               4.46175130696895 143.170150579369 12.8683075153233 157.950556430971 
! Port Impedance50               0                50               0                

3.93969849246231               0.476956368069427 142.064501421798 0.874111576455803 -6.3052136769391 0.874111576455803 -6.30521367693913 0.503376296331325 28.5123664966011 
! Gamma         !               4.50698039025109 150.585018468681 13.295780972807  165.725446764475 
! Port Impedance50               0                50               0                

4.1356783919598                0.4789526621104  140.7940840335   0.87483096568097 -7.24747511556676 0.874830965680971 -7.24747511556664 0.504135982236148 27.5087356662166 
! Gamma         !               4.5487198603998  158.000078575244 13.7005341134864 173.486930041802 
! Port Impedance50               0                50               0                

4.33165829145729               0.481086259497818 139.493289068366 0.875405222582927 -8.16304130741166 0.875405222582927 -8.16304130741175 0.504807356683777 26.613356070395  
! Gamma         !               4.58730749622281 165.415464765296 14.0839053549247 181.237340069833 
! Port Impedance50               0                50               0                

4.52763819095477               0.483324518443534 138.167874045942 0.87585315423835 -9.05595785896207 0.875853154238351 -9.05595785896215 0.505414276003127 25.8142156767064 
! Gamma         !               4.62304854883474 172.831278758295 14.4472348402638 188.978650497833 
! Port Impedance50               0                50               0                

4.72361809045226               0.485643126218252 136.822898992465 0.876187425916959 -9.9295043012399 0.876187425916959 -9.92950430123989 0.505979401982132 25.1009276869421 
! Gamma         !               4.65621824928289 180.247595898354 14.791834958346  196.712525589078 
! Port Impedance50               0                50               0                

4.91959798994975               0.488024065826823 135.462772170547 0.8764165777408  -10.7863319061426 0.876416577740799 -10.7863319061425 0.506523626270151 24.4643901410106 
! Gamma         !               4.6870639281234  187.6644705487   15.1189703447075 204.440365151051 
! Port Impedance50               0                50               0                

5.11557788944724               0.49045402493125 134.091313070105 0.876546437435867 -11.6285813322151 0.876546437435867 -11.6285813322152 0.507065695710786 23.8965452930477 
! Gamma         !               4.7158075371452  195.081940111944 15.429845118392  212.163344123185 
! Port Impedance50               0                50               0                

5.31155778894472               0.492923228448173 132.711813005547 0.876581153820277 -12.4579788086856 0.876581153820276 -12.4579788086855 0.507622019538067 23.3901995364993 
! Gamma         !               4.74264795476012 202.500029092378 15.7255953854294 219.882446716987 
! Port Impedance50               0                50               0                

5.50753768844221               0.495424490179198 131.327099931013 0.876523868084678 -13.2759177622774 0.876523868084679 -13.2759177622773 0.50820662176466 22.9388991148069 
! Gamma         !               4.7677635272705  209.918751646333 16.0072857663106 227.598496181462 
! Port Impedance50               0                50               0                

5.7035175879397                0.497952543028335 129.939595404591 0.876377197983778 -14.0835243938041 0.876377197983775 -14.0835243938042 0.50883119758566 22.5368291158996 
! Gamma         !               4.79131391328147 217.338113868496 16.275908526396  235.312179845186 
! Port Impedance50               0                50               0                

5.89949748743719               0.500503508679672 128.551367187609 0.876143529622738 -14.8817121157742 0.876143529622737 -14.8817121157743 0.509505228218943 22.1787414033972 
! Gamma         !               4.81344224796544 224.758115912704 16.5323848153634 243.024070937422 
! Port Impedance50               0                50               0                

6.09547738693467               0.503074495215417 127.164180158702 0.875825201066181 -15.6712252345853 0.875825201066187 -15.6712252345854 0.510236190271345 21.8598916876455 
! Gamma         !               4.83427689229745 232.178753338293 16.7775671312903 250.734646865912 
! Port Impedance50               0                50               0                

6.29145728643216               0.505663313550126 125.779536179487 0.875424611552986 -16.4526742601284 0.875424611552984 -16.452674260128 0.511029733568886 21.575990103337  
! Gamma         !               4.85393309736789 239.600018087615 17.0122426572318 258.444304377249 
! Port Impedance50               0                50               0                

6.48743718592965               0.508268253855094 124.3987126896   0.874944261971487 -17.2265636990406 0.874944261971491 -17.2265636990403 0.51188991426764 21.3231591247382 
! Gamma         !               4.87251437869946 247.021899811899 17.2371371033707 266.153372803625 
! Port Impedance50               0                50               0                

6.68341708542714               0.510887931556281 123.022794306784 0.874386777142077 -17.9933147270551 0.8743867771421  -17.9933147270555 0.512819396032366 21.0978940176303 
! Gamma         !               4.89011391400283 254.444386417204 17.4529187337864 273.862125267347 
! Port Impedance50               0                50               0                

6.87939698492462               0.513521164288755 121.65270040473  0.873754898209029 -18.7532826353618 0.873754898209033 -18.7532826353617 0.513819658733808 20.897030021627  
! Gamma         !               4.90681555927711 261.867464612394 17.6602025890819 281.570787259743 
! Port Impedance50               0                50               0                

7.07537688442211               0.516166897314586 120.289209540909 0.873051459188679 -19.5067705941775 0.873051459188674 -19.5067705941779 0.514891181997653 20.7177115592225 
! Gamma         !               4.92269505984914 269.291120166144 17.8595544583886 289.279545127683 
! Port Impedance50               0                50               0                

7.2713567839196                0.518824141991341 118.932978609779 0.872279368336997 -20.2540408725901 0.872279368337007 -20.2540408725903 0.516033606859611 20.5573644081474 
! Gamma         !               4.93782076956322 276.715338824431 18.051494896481  296.988551911874 
! Port Impedance50               0                50               0                

7.46733668341709               0.521491938813624 117.584560772331 0.871441583066451 -20.9953229420818 0.871441583066447 -20.9953229420815 0.517245895161054 20.4136691110527 
! Gamma         !               4.95225453383835 284.140106008354 18.2365029535169 304.697933265023 
! Port Impedance50               0                50               0                

7.66331658291457               0.524169340140858 116.244419558558 0.8705410782889  -21.7308200279343 0.8705410782889  -21.7308200279353 0.518526451062817 20.2845395759187 
! Gamma         !               4.96605242748273 291.565407186563 18.4150196335774 312.40779164857  
! Port Impedance50               0                50               0                

7.85929648241206               0.526855377774417 114.912941195488 0.869580832803507 -22.4607149325525 0.869580832803503 -22.4607149325521 0.519873235814097 20.1680996935887 
! Gamma         !               4.97926529425738 298.99122826096  18.5874512487258 320.118210325321 
! Port Impedance50               0                50               0                

8.05527638190955               0.529549068831876 113.5904460396   0.868563800916089 -23.1851733301083 0.86856380091609 -23.1851733301077 0.521283868830517 20.0626643820954 
! Gamma         !               4.9919393849574  306.417555362927 18.7541723693234 327.829256532364 
! Port Impedance50               0                50               0                

8.25125628140703               0.532249407174359 112.277196027973 0.867492901304612 -23.904347443271 0.867492901304611 -23.9043474432714 0.52275570136941 19.9667221829306 
! Gamma         !               5.00411677026164 313.844375135075 18.915528644809  335.54098420515  
! Port Impedance50               0                50               0                

8.44723618090452               0.534955360649625 110.973403442114 0.866371002212069 -24.618378242206 0.866371002212068 -24.6183782422057 0.524285893875758 19.878917649839  
! Gamma         !               5.01583581488215 321.271674592429 19.0718393609957 343.253435799289 
! Port Impedance50               0                50               0                

8.64321608040201               0.537665875994207 109.679237763838 0.865200905763981 -25.3273974433469 0.865200905763982 -25.3273974433472 0.52587146990852 19.7980371988212 
! Gamma         !               5.02713153314664 328.699441415196 19.2233997304799 350.966644728364 
! Port Impedance50               0                50               0                

8.8391959798995                0.54037988480119 108.394829507184 0.863985350008796 -26.0315291106525 0.863985350008797 -26.0315291106525 0.527509362754382 19.7229949716966 
! Gamma         !               5.03803598055841 336.127663768494 19.3704830324006 358.680636536368 
! Port Impedance50               0                50               0                

9.03517587939698               0.543096299488625 107.120276171031 0.862726991424167 -26.7308909220433 0.862726991424166 -26.7308909220433 0.529196457663172 19.6528215938398 
! Gamma         !               5.04857844143892 343.556330455011 19.513342535961  366.395430432007 
! Port Impedance50               0                50               0                

9.23115577889447               0.54581402903029 105.855647090202 0.861428406815341 -27.4255947643185 0.861428406815338 -27.4255947643183 0.530929624846161 19.5866511594813 
! Gamma         !               5.05878583906977 350.985430760508 19.6522132401227 374.111040125628 
! Port Impedance50               0                50               0                

9.42713567839196               0.548531971163614 104.600985442326 0.860092089104534 -28.1157480427034 0.860092089104534 -28.1157480427033 0.532705744445775 19.523712569156  
! Gamma         !               5.06868280867665 358.414954601563 19.7873134545109 381.827474906199 
! Port Impedance50               0                50               0                

9.62311557788945               0.551249029650699 103.356312103043 0.858720445427801 -28.8014538589969 0.858720445427803 -28.801453858997 0.534521728481854 19.4633198230352 
! Gamma         !               5.07829208997974 365.844892481147 19.9188462325411 389.544740572622 
! Port Impedance50               0                50               0                

9.81909547738693               0.553964111096327 102.121628197381 0.857315799811439 -29.482811852285 0.857315799811439 -29.482811852285 0.536374536164969 19.404863321925  
! Gamma         !               5.08763456429901 373.275235307497 20.0470006889109 397.262839560528 
! Port Impedance50               0                50               0                

10.0150753768844               0.55667612794392 100.896917614761 0.855880387124962 -30.1599184350218 0.855880387124963 -30.1599184350219 0.538261192296712 19.3478029860296 
! Gamma         !               5.09672949030496 380.705974709762 20.1719531313202 404.981772119516 
! Port Impedance50               0                50               0                

10.2110552763819               0.559384011226164 99.6821486806451 0.854416361161989 -30.8328671691913 0.854416361161987 -30.8328671691912 0.540178791636866 19.2916610491771 
! Gamma         !               5.10559463751104 388.137102681522 20.2938681792335 412.701536288097 
! Port Impedance50               0                50               0                

10.4070351758794               0.562086704911735 98.4772762264155 0.852925791255574 -31.5017491205031 0.852925791255574 -31.5017491205031 0.542124512436657 19.2360160421702 
! Gamma         !               5.11424642995533 395.568611747542 20.4128996812497 420.422128393181 
! Port Impedance50               0                50               0                

10.6030150753769               0.564783169922389 97.2822432340796 0.851410665857739 -32.166653177742 0.851410665857739 -32.166653177742 0.544095619321193 19.1804970888279 
! Gamma         !               5.12270005784149 403.000494940153 20.5291916166633 428.143543504535 
! Port Impedance50               0                50               0                

10.7989949748744               0.567472395648425 96.0969818120009 0.849872895029845 -32.8276661092832 0.849872895029844 -32.8276661092833 0.54608946759761 19.1247793132989 
! Gamma         !               5.13096960055575 410.432745714917 20.6428788704938 435.865775589307 
! Port Impedance50               0                50               0                

10.9949748743719               0.5701533908291  94.921414865468  0.848314312557712 -33.4848728926864 0.848314312557711 -33.4848728926863 0.548103509160773 19.0685786561653 
! Gamma         !               5.13906809155314 417.865357991413 20.7540879708454 443.588817710833 
! Port Impedance50               0                50               0                

11.1909547738693               0.572825191507873 93.755457144932  0.846736676412714 -34.1383568410409 0.846736676412715 -34.1383568410408 0.550135291983059 19.0116483836204 
! Gamma         !               5.14700763084873 425.298326078801 20.8629377158654 451.312662186951 
! Port Impedance50               0                50               0                

11.3869346733668               0.57548686688448 92.5990158505465 0.845141674829226 -34.7881998355549 0.845141674829224 -34.7881998355547 0.552182458718772 18.9537752766774 
! Gamma         !               5.15479946795085 432.73164465705  20.9695397953014 459.037300966845 
! Port Impedance50               0                50               0                

11.5829145728643               0.578137511408882 91.4519918371629 0.843530925317158 -35.4344823790696 0.843530925317157 -35.4344823790696 0.554242753082999 18.8947760425087 
! Gamma         !               5.16245404566501 440.165308858664 21.0739993034062 466.762725477505 
! Port Impedance50               0                50               0                

11.7788944723618               0.580776252594815 90.3142804960342 0.841905979324803 -36.0772837479057 0.841905979324804 -36.0772837479057 0.556314014223752 18.8344943943165 
! Gamma         !               5.1699811082483  447.599314101769 21.1764152514434 474.48892686283  
! Port Impedance50               0                50               0                

11.9748743718593               0.583402250355806 89.1857721611197 0.840268323014742 -36.7166821997249 0.840268323014742 -36.7166821997251 0.558394177181438 18.7727985827477 
! Gamma         !               5.17738968429107 455.033656157959 21.2768810010546 482.215896151441 
! Port Impedance50               0                50               0                

12.1708542713568               0.586014696992524 88.0663528728475 0.838619380420726 -37.3527549788066 0.838619380420727 -37.3527549788065 0.560481273456591 18.7095786505699 
! Gamma         !               5.18468824736342 462.4683311812   21.3754846865643 489.94362416066  
! Port Impedance50               0                50               0                

12.3668341708543               0.588612818861974 86.9559049710131 0.836960515140932 -37.9855784925598 0.836960515140931 -37.9855784925597 0.562573427547353 18.6447443701217 
! Gamma         !               5.19188465341264 469.903335593297 21.4723095768529 497.67210172746  
! Port Impedance50               0                50               0                

12.5628140703518               0.591195876666174 85.8543076124837 0.8352930334872  -38.6152283885854 0.8352930334872  -38.6152283885854 0.564668855121566 18.5782231101961 
! Gamma         !               5.19898626831462 477.338666125584 21.5674344161896 505.401319606596 
! Port Impedance50               0                50               0                

12.7587939698492               0.593763164022078 84.7614373127737 0.833618184712402 -39.241779634282 0.833618184712402 -39.241779634282 0.566765862719193 18.5099580767161 
! Gamma         !               5.20599994737422 484.774319774408 21.660933756344  513.131268633224 
! Port Impedance50               0                50               0                

12.9547738693467               0.596314010155672 83.6771679634499 0.831937164478955 -39.8653066916207 0.831937164478954 -39.8653066916207 0.568862844289124 18.4399068332258 
! Gamma         !               5.21293211536136 492.210293786558 21.7528782126277 520.86193971824  
! Port Impedance50               0                50               0                

13.1507537688442               0.59884777877458 82.6013717364148 0.830251116066526 -40.4858835055314 0.830251116066527 -40.4858835055315 0.570958279366057 18.3680395547644 
! Gamma         !               5.21978876670059 499.646585773995 21.8433347617799 528.593323906106 
! Port Impedance50               0                50               0                

13.3467336683417               0.601363866720962 81.5339192020946 0.828561131438395 -41.1035835928909 0.828561131438395 -41.1035835928909 0.573050731884908 18.2943378282832 
! Gamma         !               5.22657551969848 507.083193431853 21.9323669533485 536.325412316101 
! Port Impedance50               0                50               0                

13.5427135678392               0.603861706176086 80.474679742658  0.826868254261594 -41.7184802025083 0.826868254261594 -41.7184802025083 0.575138845834989 18.2187933689635 
! Gamma         !               5.23329764098313 514.520114809561 22.0200351526028 544.058196221765 
! Port Impedance50               0                50               0                

13.7386934673367               0.606340761896688 79.4235215927919 0.825173478527452 -42.3306463184003 0.825173478527452 -42.3306463184004 0.577221346694635 18.1414071557958 
! Gamma         !               5.23996005011743 521.957348109936 22.1063967354912 551.791667068641 
! Port Impedance50               0                50               0                

13.9346733668342               0.608800530923096 78.3803123629711 0.823477753396833 -42.9401547453071 0.823477753396834 -42.9401547453071 0.579297035932475 18.0621880110492 
! Gamma         !               5.24656734305767 529.394891829891 22.1915062872679 559.525816513834 
! Port Impedance50               0                50               0                

14.1306532663317               0.611240546115581 77.34491919395   0.821781982735303 -43.5470782059048 0.821781982735304 -43.5470782059048 0.581364790121695 17.9811520664296 
! Gamma         !               5.25312384266966 536.832744522618 22.2754157620262 567.260636369612 
! Port Impedance50               0                50               0                

14.3266331658291               0.613660371718543 76.3172090030752 0.820087025732567 -44.1514893717971 0.820087025732566 -44.151489371797 0.583423559112912 17.8983218799598 
! Gamma         !               5.25963360161161 544.270905112909 22.3581746640741 574.996118590666 
! Port Impedance50               0                50               0                

14.5226130653266               0.616059602216547 75.297048520667  0.8183936981162  -44.7534610133695 0.818393698116199 -44.7534610133697 0.585472364509588 17.8137256768597 
! Gamma         !               5.26610041105329 551.709372578536 22.4398301749271 582.732255439028 
! Port Impedance50               0                50               0                

14.7185929648241               0.618437863738587 74.2843046863856 0.816702774162676 -45.3530658670175 0.816702774162676 -45.3530658670176 0.587510298241428 17.7273964463512 
! Gamma         !               5.27252783379352 559.148146134203 22.5204273139325 590.469039252359 
! Port Impedance50               0                50               0                

14.9145728643216               0.620794813183813 73.2788450142981 0.815014985981533 -45.9503769134101 0.815014985981534 -45.95037691341  0.58953651783601 17.6393717823272 
! Gamma         !               5.27891919392393 566.587225146479 22.6000090492437 598.206462662636 
! Port Impedance50               0                50               0                

15.1105527638191               0.62313013908651 72.2805370884701 0.813331025673815 -46.5454673498601 0.813331025673816 -46.5454673498601 0.591550248283336 17.5496931151146 
! Gamma         !               5.28527760922602 574.026609157132 22.6786164279636 605.944518494809 
! Port Impedance50               0                50               0                

15.3065326633166               0.625443559591939 71.2892492819161 0.811651545944479 -47.1384106726728 0.81165154594448 -47.1384106726728 0.593550777581152 17.4584052184028 
! Gamma         !               5.29160601205062 581.466297850212 22.7562886792472 613.683199694794 
! Port Impedance50               0                50               0                

15.5025125628141               0.627734815656816 70.3048509136843 0.809977157582662 -47.7292805638202 0.809977157582663 -47.7292805638202 0.595537459353601 17.3655556235891 
! Gamma         !               5.29790714955135 588.906291063262 22.8330633211305 621.422499519687 
! Port Impedance50               0                50               0                

15.6984924623116               0.630003684053927 69.3272118478437 0.808308435310142 -48.3181512795208 0.808308435310141 -48.3181512795208 0.597509705687519 17.2711946466756 
! Gamma         !               5.30418356438369 596.346588763875 22.9089762537437 629.162411338716 
! Port Impedance50               0                50               0                

15.894472361809                0.632249965501442 68.3562032900763 0.806645913535022 -48.9050973832812 0.806645913535022 -48.9050973832812 0.599466990477423 17.1753746204478 
! Gamma         !               5.31043768030507 603.787191116253 22.9840618528764 636.902928810001 
! Port Impedance50               0                50               0                

16.0904522613065               0.634473485784662 67.3916974675769 0.80499008825262 -49.4901939545213 0.804990088252621 -49.4901939545213 0.601408846840473 17.0781497290115 
! Gamma         !               5.31667173255244 611.228098327925 23.058353048889  644.644045672492 
! Port Impedance50               0                50               0                

16.286432160804                0.636674100152927 66.4335677253418 0.803341417806978 -50.073516677096 0.803341417806978 -50.073516677096 0.603334865542835 16.9795758117665 
! Gamma         !               5.32288782122795 618.669310834619 23.1318814080336 652.385755962196 
! Port Impedance50               0                50               0                

16.4824120603015               0.638851686356026 65.4816889897011 0.801700322540123 -50.6551417527835 0.801700322540123 -50.6551417527834 0.605244694296331 16.8797098306305 
! Gamma         !               5.32908787962454 626.110829147633 23.2046771972154 660.128053834325 
! Port Impedance50               0                50               0                

16.678391959799                0.641006148122253 64.5359375659848 0.800067184496254 -51.2351460484539 0.800067184496254 -51.2351460484538 0.607138037444843 16.7786098787259 