! Touchstone file exported from HFSS 2020.2.0
!        File:           C:/Users/user/Desktop/Manuf_Based.aedt
!        Generated:      9:09:36 PM  Nov 22, 2020
!        Design:         EnguzeldUpp
!        Project:        Manuf_Based
!        Setup:          Setup1
!        Solution:       Sweep
!
! Variables:
!        Bridge_Height = 1u
!        L_Bridge = 400um
!        L_Gold_Recess = 300um
!        L_Model = 780um
!        L_Recess = 180um
!        L_Upper_Pad = 60um
!        L_tl_Unmatched = 600um
!        Lambda = 11530479.1538nm
!        W_Anchor = 60um
!        W_Bridge = 60um
!        W_Gold_Recess = 60um
!        W_Lower_Pad = 85um
!        W_Model = 2200um
!        W_Recess = 400um
!        W_Upper_Pad = 85um
!        W_gap = 100um
!        W_real_pad = 60um
!        W_signal = 85um
!        h_Recess = 1.5um
!        t_dielectric = 0.5um
!        t_gold = 1um
!        t_substrate = 500um
!
# GHZ S MA R 50.000000
! Terminal data exported
! Port[1] = 1
! Port[2] = 2
1                              0.0139597498578105 95.9103794739196 0.989794040857465 -3.06439201838045 0.989794040857465 -3.06439201838045 0.0142420427728946 92.9429197320414 
! Gamma         2.88913739131664 38.6513053188914 2.89787239973005 38.6999068706566 
! Port Impedance         50               0                50               0                
1.09774436090226               0.0159846387540058 96.627313340115  0.989054224019096 -3.31515952369367 0.989054224019097 -3.31515952369367 0.0163921004661291 94.0211554763027 
! Gamma         2.96047576709202 42.3393784844043 2.97105184640867 42.3925118235155 
! Port Impedance         50               0                50               0                
1.19548872180451               0.01808827122672 96.7850894080825 0.988428828907341 -3.56014500093136 0.988428828907341 -3.56014500093136 0.0186283479102878 94.3886709686212 
! Gamma         3.02649901185634 46.0243086865467 3.03907969293276 46.0817111096917 
! Port Impedance         50               0                50               0                
1.29323308270677               0.0202346992595021 96.5387614840529 0.987926212687375 -3.80140801553458 0.987926212687375 -3.80140801553458 0.0209072878500269 94.2553232549448 
! Gamma         3.08772530113351 49.7066529215903 3.10241297766898 49.7680548569354 
! Port Impedance         50               0                50               0                
1.39097744360902               0.0223951370678141 96.0153542722853 0.987544396190417 -4.04080423018253 0.987544396190416 -4.04080423018253 0.0231951017102391 93.7835948624477 
! Gamma         3.14459073968702 53.3868594471113 3.16143488846093 53.451998867895  
! Port Impedance         50               0                50               0                
1.48872180451128               0.0245482411395111 95.312074074408  0.987274395878007 -4.27986259412882 0.987274395878008 -4.27986259412882 0.025467167009382 93.0933077928879 
! Gamma         3.19746660733698 57.0652988364283 3.21647359717417 57.1339304608142 
! Port Impedance         50               0                50               0                
1.58646616541353               0.0266792313602266 94.5002884449776 0.987103156644848 -4.519753081222  0.987103156644848 -4.519753081222  0.0277066325811941 92.2703215030739 
! Gamma         3.24667432548323 60.7422837657663 3.26781704758037 60.8141844925066 
! Port Impedance         50               0                50               0                
1.68421052631579               0.0287786592055683 93.6307662897654 0.98701588979713 -4.76130620960127 0.98701588979713 -4.76130620960126 0.0299028249378203 91.3748570180258 
! Gamma         3.29249721078827 64.4180819701226 3.31572376218754 64.4930530923557 
! Port Impedance         50               0                50               0                
1.78195488721805               0.0308411332183017 92.7387937469875 0.986997642335462 -5.00506300800969 0.986997642335462 -5.00506300800969 0.0320497249359093 90.4484901716663 
! Gamma         3.33518911531808 68.0929245070485 3.36043015048455 68.1707920804072 
! Port Impedance         50               0                50               0                
1.8796992481203                0.032864227401334 91.8482091304623 0.98703434513916 -5.25133161763161 0.987034345139159 -5.25133161763161 0.0341447174972947 89.5193509116459 
! Gamma         3.37498054670474 71.7670115903635 3.40215529520958 71.8476252282506 
! Port Impedance         50               0                50               0                
1.97744360902256               0.0348475945245675 90.9746087345011 0.987113367401193 -5.50024316504843 0.987113367401194 -5.50024316504843 0.0361875803408999 88.606008597755  
! Gamma         3.41208299042849 75.4405166414274 3.44110392261504 75.5237478138665 
! Port Impedance         50               0                50               0                
2.07518796992481               0.0367922680921964 90.1277665398606 0.987223729421362 -5.75180126394934 0.987223729421363 -5.75180126394934 0.0381797029105611 87.7203235974543 
! Gamma         3.44669181650024 79.113589487706  3.47746820166095 79.19932936122   
! Port Impedance         50               0                50               0                
2.17293233082707               0.0387001539971723 89.3133519115067 0.987356143560821 -6.00592163184698 0.987356143560821 -6.00592163184698 0.0401235137623331 86.869434894169  
! Gamma         3.47898825214401 82.7863591515998 3.51142880447114 82.8745162345459 
! Port Impedance         50               0                50               0                
2.27067669172932               0.0405736571472912 88.5342065584933 0.987502911400572 -6.26246344091112 0.987502911400572 -6.26246344091112 0.0420220574945235 86.0572054366993 
! Gamma         3.50914082232654 86.4589361390532 3.54315557493883 86.5494341961804 
! Port Impedance         50               0                50               0                
2.36842105263158               0.0424154196220091 87.7912370515383 0.987657771678985 -6.52125264837198 0.987657771678985 -6.52125264837199 0.0438786955614618 85.2852350861388 
! Gamma         3.53730636487016 90.1314144743154 3.57280798602776 90.2241903404624 
! Port Impedance         50               0                50               0                
2.46616541353383               0.0442281438810641 87.0840647261893 0.987815714488955 -6.78209891140882 0.987815714488956 -6.78209891140882 0.0456968983219803 84.5535865401293 
! Gamma         3.56363080655212 93.8038737849752 3.60053545524116 93.8988756431195 
! Port Impedance         50               0                50               0                
2.56390977443609               0.0460144730876214 86.4114854806346 0.987972791558015 -7.04480753593211 0.987972791558015 -7.04480753593211 0.0474801016873334 83.8613073336527 
! Gamma         3.58824986608914 97.4763808322251 3.62647772250871 97.5735663905893 
! Port Impedance         50               0                50               0                
2.66165413533835               0.0477769200950371 85.771789417958  0.988125943637011 -7.3091873734583 0.988125943637012 -7.3091873734583 0.0492316164037321 83.2067887827651 
! Gamma         3.61128960206711 101.148991335035 3.65076514294613 101.248326482555 
! Port Impedance         50               0                50               0                
2.7593984962406                0.0495178243528047 85.162982524814  0.988272844776288 -7.57505589929569 0.988272844776289 -7.57505589929569 0.050954571125163 82.5880233325768 
! Gamma         3.6328669810417  104.82175116825  3.67351909029605 104.923208686086 
! Port Impedance         50               0                50               0                
2.85714285714286               0.0512393314738625 84.5829404994782 0.988411766153081 -7.84224227460207 0.988411766153081 -7.84224227460207 0.0526518794297035 82.0027847660539 
! Gamma         3.65309039772821 108.494697898738 3.69485235023959 108.598256353782 
! Port Impedance         50               0                50               0                
2.95488721804511               0.0529433867242913 84.0295170862518 0.988541456631991 -8.11058888254706 0.98854145663199 -8.11058888254706 0.0543262253965909 81.4487570902318 
! Gamma         3.67206020123096 112.167861777979 3.71486954277964 112.273504626942 
! Port Impedance         50               0                50               0                
3.05263157894737               0.0546317383638019 83.500602056167  0.988661054748613 -8.37995187524853 0.988661054748613 -8.37995187524853 0.055980059918567 80.9236112770183 
! Gamma         3.68986919103515 115.841266802186 3.73366758904844 115.948981514044 
! Port Impedance         50               0                50               0                
3.15037593984962               0.0563059472662569 82.9941728698565 0.988770002708385 -8.65020104115758 0.988770002708385 -8.65020104115758 0.0576156064409611 80.425068471417  
! Gamma         3.70660310145509 119.514931655958 3.75133613488205 119.62470923991  
! Port Impedance         50               0                50               0                
3.24812030075188               0.0579673983517684 82.5083198450169 0.988867979450545 -8.92121932650568 0.988867979450545 -8.92121932650568 0.0592348685587603 79.9509408114154 
! Gamma         3.72234109113077 123.188870530263 3.76795805130178 123.300704723931 
! Port Impedance         50               0                50               0                
3.34586466165414               0.059617315632662 82.0412594170753 0.988954849469899 -9.19290196482443 0.988954849469899 -9.19290196482443 0.0608396448633619 79.4991506819484 
! Gamma         3.73715620307306 126.86309374508  3.78360985298749 126.976980698505 
! Port Impedance         50               0                50               0                
3.44360902255639               0.0612567750070502 81.5913303020055 0.989030628665899 -9.46515567421968 0.989030628665898 -9.46515567421969 0.0624315402696239 79.0677364781426 
! Gamma         3.75111580730785 130.537608359456 3.79836215666211 130.653546189059 
! Port Impedance         50               0                50               0                
3.54135338345865               0.0628867221382676 81.157014906761  0.989095427845381 -9.73789749634271 0.989095427845383 -9.73789749634271 0.0640119843294368 78.654879515505  
! Gamma         3.76428201784792 134.212418756886 3.81228010411815 134.330407217145 
! Port Impedance         50               0                50               0                
3.6390977443609                0.0645079821142803 80.7369115040717 0.989149449905889 -10.0110540290595 0.989149449905888 -10.0110540290595 0.0655822426102041 78.2588817758789 
! Gamma         3.77671209423419 137.887527073095 3.82542376952582 138.007567246823 
! Port Impedance         50               0                50               0                
3.73684210526316               0.0661212747150768 80.3297420996836 0.989192953907796 -10.2845603587947 0.989192953907797 -10.2845603587947 0.0671434330954276 77.8781768614205 
! Gamma         3.78845881863664 141.562933544436 3.83784854335082 141.68502762484  
! Port Impedance         50               0                50               0                
3.83458646616541               0.0677272263861967 79.9343445892694 0.989226237576613 -10.5583591693153 0.989226237576613 -10.5583591693153 0.0686965399093979 77.5113256577399 
! Gamma         3.79957084651873 145.238636871646 3.8496055077383  145.362787927175 
! Port Impedance         50               0                50               0                
3.93233082706767               0.0693263800419859 79.5496612784449 0.989249627794723 -10.8323999939327 0.989249627794722 -10.8323999939327 0.0702424247908009 77.1570065163526 
! Gamma         3.81009303945417 148.914634520662 3.86074175288531 149.040846350834 
! Port Impedance         50               0                50               0                
4.03007518796993               0.0709192056310261 79.1747322008481 0.98926346829906 -11.1066383485157 0.989263468299061 -11.1066383485157 0.0717818418888811 76.8140100472226 
! Gamma         3.82006676371592 152.590922913083 3.87130071956022 152.719199897696 
! Port Impedance         50               0                50               0                
4.12781954887218               0.0725061072016843 78.8086845130008 0.989268114302626 -11.3810352112438 0.989268114302626 -11.3810352112438 0.073315445033698 76.481229797855  
! Gamma         3.82953017749863 156.267497657196 3.88132248139619 156.397844637329 
! Port Impedance         50               0                50               0                
4.22556390977444               0.0740874325661023 78.4507290485847 0.989263921029291 -11.655556265526 0.98926392102929 -11.655556265526 0.0748438008831724 76.1576591159389 
! Gamma         3.83851849288525 159.944353748425 3.89084402203989 160.076775903759 
! Port Impedance         50               0                50               0                
4.32330827067669               0.0756634792802928 78.1001507894731 0.989251241737244 -11.9301713885768 0.989251241737244 -11.9301713885768 0.0763673976526064 75.8423813625084 
! Gamma         3.84706421277655 163.621485657309 3.89989948412479 163.755988468089 
! Port Impedance         50               0                50               0                
4.42105263157895               0.0772345003827299 77.7563011548756 0.989230424817654 -12.2048542007362 0.989230424817654 -12.2048542007362 0.0778866524490219 75.5345626486392 
! Gamma         3.85519735920916 167.298887508381 3.9085204008933  167.435476641466 
! Port Impedance         50               0                50               0                
4.5187969924812                0.0788007108127893 77.4185943820068 0.989201807884405 -12.4795815467832 0.989201807884405 -12.4795815467832 0.0794019206967806 75.2334475454364 
! Gamma         3.86294567319867 170.976553164309 3.91673591833165 171.115234417921 
! Port Impedance         50               0                50               0                
4.61654135338346               0.0803622903108487 77.0864974015373 0.989165721587129 -12.7543332145557 0.98916572158713 -12.7543332145557 0.0809135010917852 74.9383482324135 
! Gamma         3.87033480148825 174.654476261864 3.92457298313169 174.795255555809 
! Port Impedance         50               0                50               0                
4.71428571428571               0.0819193895421559 76.7595291419474 0.989122481865101 -13.0290915000751 0.989122481865102 -13.0290915000751 0.0824216431769171 74.6486437263932 
! Gamma         3.87738847168242 178.332650392289 3.93205652105496 178.475533680422 
! Port Impedance         50               0                50               0                
4.81203007518797               0.0834721326151833 76.4372529796362 0.989072392996785 -13.3038409372608 0.989072392996785 -13.3038409372608 0.0839265526596549 74.3637711170563 
! Gamma         3.8841286467625  182.011069065684 3.93920961091407 182.156062297565 
! Port Impedance         50               0                50               0                
4.90977443609022               0.0850206195790478 76.1192714801417 0.989015748347203 -13.5785680868194 0.989015748347203 -13.5785680868193 0.0854283954392165 74.0832197000609 
! Gamma         3.89057566634846 185.689725805921 3.94605362863789 185.836834925745 
! Port Impedance         50               0                50               0                
5.00751879699248               0.0865649317629711 75.8052266549138 0.988952824372549 -13.8532611505087 0.988952824372549 -13.8532611505087 0.0869273044234733 73.8065301834575 
! Gamma         3.89674838859264 189.368614137524 3.95260838590042 189.517845069502 
! Port Impedance         50               0                50               0                
5.10526315789474               0.0881051316418542 75.4947920344138 0.988883886413949 -14.1279099152777 0.988883886413948 -14.1279099152777 0.0884233812236221 73.5332863925141 
! Gamma         3.90266429697562 193.047727719533 3.95889226202948 193.199086314862 
! Port Impedance         50               0                50               0                
5.20300751879699               0.089641265604475 75.1876704330588 0.988809187971526 -14.4025055200112 0.988809187971527 -14.4025055200112 0.0899167005734742 73.2631117203575 
! Gamma         3.90833962100651 196.727060257433 3.9649223101042  196.880552295538 
! Port Impedance         50               0                50               0                
5.30075187969925               0.0911733673271572 74.8835932239486 0.988728967397318 -14.6770402358313 0.988728967397319 -14.6770402358313 0.0914073143346014 72.9956680221889 
! Gamma         3.91378942974467 200.406605632387 3.97071437184355 200.562236788311 
! Port Impedance         50               0                50               0                
5.3984962406015                0.0927014576343091 74.582315096885  0.988643452640555 -14.9515073982898 0.988643452640554 -14.9515073982898 0.092895253363038 72.7306490543529 
! Gamma         3.91902773293432 204.086357794291 3.97628316735514 204.244133698422 
! Port Impedance         50               0                50               0                
5.49624060150376               0.0942255469115904 74.2836131742066 0.988552858909586 -15.2259012500032 0.988552858909585 -15.2259012500032 0.0943805303591033 72.4677795845345 
! Gamma         3.92406755323766 207.766310905262 3.98164239238112 207.926237030067 
! Port Impedance         50               0                50               0                
5.59398496240602               0.0957456360404502 73.9872841908106 0.988457390870734 -15.5002168370149 0.988457390870734 -15.5002168370149 0.0958631422078888 72.2068110688307 
! Gamma         3.9289210172107  211.446459237875 3.98680478737335 211.608540983173 
! Port Impedance         50               0                50               0                
5.69172932330827               0.0972617174668806 73.6931425803704 0.988357242749686 -15.7744499168257 0.988357242749687 -15.7744499168257 0.0973430719213465 71.9475196881574 
! Gamma         3.93359941142087 215.126797261519 3.99178222481605 215.29103988158  
! Port Impedance         50               0                50               0                
5.78947368421053               0.0987737767365761 73.4010195106293 0.988252597943114 -16.0485968508812 0.988252597943114 -16.0485968508812 0.0988202906300512 71.6897043612617 
! Gamma         3.93811325988337 218.807319593566 3.99658576340072 218.973728241324 
! Port Impedance         50               0                50               0                
5.88721804511278               0.100281792939494 73.1107609470893 0.988143630134976 -16.3226545419917 0.988143630134975 -16.3226545419917 0.100294759252783 71.4331843302743 
! Gamma         3.94247237210992 222.488021037256 4.00122572265592 222.656600737137 
! Port Impedance         50               0                50               0                
5.98496240601504               0.101785739756961 72.8222259453494 0.98803050417003 -16.5966203695875 0.98803050417003 -16.5966203695875 0.101766429458233 71.1777970588124 
! Gamma         3.94668590721039 226.168896562642 4.00571172928318 226.339652220521 
! Port Impedance         50               0                50               0                
6.08270676691729               0.103285585534948 72.5352855040927 0.987913376796216 -16.8704921403625 0.987913376796216 -16.8704921403625 0.103235245389754 70.9233962282489 
! Gamma         3.95076241769805 229.84994132629  4.0100527762388  230.022877718637 
! Port Impedance         50               0                50               0                
6.18045112781955               0.104781294832233 72.2498219744796 0.987792395893608 -17.1442680068365 0.987792395893607 -17.1442680068365 0.10470114460389 70.669851049545  
! Gamma         3.95470989538084 233.531150617967 4.01425726997581 233.706272414461 
! Port Impedance         50               0                50               0                
6.2781954887218                0.106272827952359 71.965727309424  0.987667702484087 -17.4179464678404 0.987667702484085 -17.4179464678404 0.106164058764489 70.4170438137823 
! Gamma         3.95853581510387 237.212519923336 4.01833307075552 237.389831657454 
! Port Impedance         50               0                50               0                
6.37593984962406               0.107760142541449 71.6829028238679 0.987539429890711 -17.6915262697013 0.987539429890712 -17.6915262697013 0.107623915325293 70.1648694071736 
! Gamma         3.96224716993824 240.894044906144 4.02228753302397 241.073550996132 
! Port Impedance         50               0                50               0                
6.47368421052632               0.109243192668477 71.4012576206828 0.98740770566122 -17.9650064391749 0.987407705661221 -17.9650064391749 0.109080637213512 69.9132332312778 
! Gamma         3.96585051109485 244.575721367143 4.02612754618914 244.757426131587 
! Port Impedance         50               0                50               0                
6.57142857142857               0.110721930561837 71.1207087680951 0.987272650100406 -18.2383861870006 0.987272650100407 -18.2383861870006 0.110534144393184 69.6620513182804 
! Gamma         3.9693519762923  248.257545272993 4.02985956756359 248.441452878083 
! Port Impedance         50               0                50               0                
6.66917293233083               0.112196305762436 70.8411797510865 0.987134378624708 -18.5116649325359 0.987134378624708 -18.5116649325359 0.111984353969402 69.4112480818354 
! Gamma         3.97275732176536 251.939512737985 4.03348965103121 252.125627256835 
! Port Impedance         50               0                50               0                
6.76691729323308               0.113666266205821 70.5626003990983 0.986993000781524 -18.7848422550939 0.986993000781524 -18.7848422550939 0.113431180805504 69.160756386924  
! Gamma         3.97607194578194 255.621620069175 4.03702347608593 255.809945450024 
! Port Impedance         50               0                50               0                
6.86466165413534               0.115131757923787 70.284906041804  0.986848621580477 -19.0579178762483 0.986848621580476 -19.0579178762483 0.114874538125544 68.9105160551992 
! Gamma         3.97930092173419 259.30386364414  4.04046637799877 259.494403742138 
! Port Impedance         50               0                50               0                
6.96240601503759               0.116592726401699 70.0080377611167 0.98670134000325 -19.3308916124571 0.98670134000325 -19.3308916124571 0.116314338233307 68.6604742957061 
! Gamma         3.98244901053559 262.986240054361 4.04382336747037 263.178998598992 
! Port Impedance         50               0                50               0                
7.06015037593985               0.11804911471522 69.7319404827354 0.986551252385066 -19.6037634457434 0.986551252385065 -19.6037634457434 0.117750491539757 68.410583281102  
! Gamma         3.98552069271336 266.668745986448 4.04709915518706 266.863726614115 
! Port Impedance         50               0                50               0                
7.15789473684211               0.119500865739652 69.4565640265634 0.986398449812996 -19.8765334101466 0.986398449812996 -19.8765334101466 0.119182908474132 68.1608011848815 
! Gamma         3.988520179829   270.351378263669 4.05029817370517 270.548584510633 
! Port Impedance         50               0                50               0                
7.25563909774436               0.120947921216464 69.1818618578312 0.986243020146225 -20.1492016358356 0.986243020146226 -20.1492016358356 0.120611498863744 67.9110907067598 
! Gamma         3.99145143723644 274.034133857934 4.05342459599224 274.23356914646  
! Port Impedance         50               0                50               0                
7.35338345864662               0.122390222234178 68.9077912512511 0.986085047238653 -20.4217683267793 0.986085047238652 -20.4217683267793 0.122036172189316 67.6614191338745 
! Gamma         3.9943182003062  277.717009830077 4.05648234960808 277.918677501453 
! Port Impedance         50               0                50               0                
7.45112781954887               0.12382770949735 68.6343127325225 0.985924611820942 -20.6942337321745 0.98592461182094 -20.6942337321745 0.123456838389654 67.4117575631119 
! Gamma         3.99712398888766 281.400003390415 4.05947513727772 281.603906691341 
! Port Impedance         50               0                50               0                
7.54887218045113               0.125260322362733 68.3613894008711 0.985761792392187 -20.9665982012021 0.985761792392188 -20.9665982012021 0.124873406740277 67.1620802193172 
! Gamma         3.99987212067644 285.083111849255 4.06240645270086 285.289253930238 
! Port Impedance         50               0                50               0                
7.64661654135338               0.126688001132171 68.0889879242725 0.98559666298183 -21.2388620644821 0.985596662981831 -21.2388620644821 0.126285787938778 66.9123653043006 
! Gamma         4.0025657276889  288.766332636154 4.06527958869687 288.97471654265  
! Port Impedance         50               0                50               0                
7.74436090225564               0.128110684659347 67.8170768197121 0.985429296385447 -21.5110257521347 0.985429296385446 -21.5110257521348 0.127693892123263 66.6625931563708 
! Gamma         4.0052077662518  292.449663259476 4.06809765614707 292.660291979487 
! Port Impedance         50               0                50               0                
7.84210526315789               0.129528312243137 67.545627304285  0.985259762140627 -21.7830896963036 0.985259762140627 -21.7830896963036 0.129097630593652 66.4127470836812 
! Gamma         4.0078010284878  296.133101358664 4.07086359197642 296.345977787238 
! Port Impedance         50               0                50               0                
7.93984962406015               0.130940822758957 67.2746125845864 0.985088127891191 -22.0550543719396 0.985088127891191 -22.0550543719395 0.13049691513234 66.1628124779718 
! Gamma         4.01034815337124 299.816644666413 4.07358017345958 300.031771609894 
! Port Impedance         50               0                50               0                
8.03759398496241               0.13234815499569 67.004007852672  0.984914459044322 -22.3269202829405 0.984914459044322 -22.3269202829405 0.131891658159044 65.9127768572747 
! Gamma         4.01285163576643 303.500290985887 4.07625002441472 303.717671191294 
! Port Impedance         50               0                50               0                
8.13533834586466               0.133750247546023 66.7337900289845 0.984738819198723 -22.5986879663456 0.984738819198723 -22.5986879663456 0.133281772713612 65.6626295277156 
! Gamma         4.01531383758775 307.184038241296 4.078875630943   307.403674363026 
! Port Impedance         50               0                50               0                
8.23308270676692               0.135147039292496 66.4639378239906 0.984561269944675 -22.8703579628656 0.984561269944674 -22.8703579628656 0.13466717300641 65.4123615005084 
! Gamma         4.01773699368511 310.867884412222 4.08145934262132 311.089779054243 
! Port Impedance         50               0                50               0                
8.33082706766917               0.136538469084818 66.1944314605731 0.984381871049601 -23.141930840791 0.984381871049602 -23.141930840791 0.136047773925843 65.1619653816583 
! Gamma         4.0201232207014  314.551827598059 4.08400338729602 314.775983267706 
! Port Impedance         50               0                50               0                
8.42857142857143               0.137924476149487 65.9252526756768 0.984200680583935 -23.413407168394 0.984200680583935 -23.413407168394 0.137423491552111 64.9114351047001 
! Gamma         4.02247452481669 318.235865947005 4.08650987358536 318.462285094137 
! Port Impedance         50               0                50               0                
8.52631578947368               0.139304998746997 65.656384043085  0.984017756203134 -23.6847875821196 0.984017756203134 -23.6847875821196 0.13879424202004 64.6607653098877 
! Gamma         4.02479280837358 321.919997688768 4.08898080386459 322.148682717075 
! Port Impedance         50               0                50               0                
8.62406015037594               0.140679976482213 65.3878098912452 0.983833152855524 -23.9560726745181 0.983833152855524 -23.9560726745181 0.140159943355616 64.4099523482811 
! Gamma         4.02707987450075 325.604221142542 4.09141807465242 325.835174352081 
! Port Impedance         50               0                50               0                
8.72180451127819               0.142049348617603 65.1195153678456 0.983646924959156 -24.2272630771283 0.983646924959156 -24.2272630771283 0.141520514093017 64.1589931233008 
! Gamma         4.02933743584011 329.288534675027 4.09382348699624 329.521758357905 
! Port Impedance         50               0                50               0                
8.81954887218045               0.143413054544225 64.8514866755644 0.98345912560175 -24.4983594356727 0.98345912560175 -24.4983594356727 0.142875873671048 63.90788550192   
! Gamma         4.03156711848169 332.9729367351   4.09619875036689 333.208433089357 
! Port Impedance         50               0                50               0                
8.91729323308271               0.144771034004824 64.5837109921839 0.983269806731104 -24.769362401846 0.983269806731105 -24.769362401846 0.14422594257742 63.6566280829209 
! Gamma         4.03377046604077 336.657425839159 4.09854548901258 336.895197011676 
! Port Impedance         50               0                50               0                